# vtk DataFile Version 2.0
FlowField
ASCII
DATASET UNSTRUCTURED_GRID
POINTS 1331 double
 0.00000e+00  1.00000e-02  1.00000e-02
 0.00000e+00  0.00000e+00  1.00000e-02
 1.00000e-02  0.00000e+00  1.00000e-02
 1.00000e-02  1.00000e-02  1.00000e-02
 0.00000e+00  1.00000e-02  0.00000e+00
 0.00000e+00  0.00000e+00  0.00000e+00
 1.00000e-02  0.00000e+00  0.00000e+00
 1.00000e-02  1.00000e-02  0.00000e+00
 2.00000e-02  0.00000e+00  1.00000e-02
 2.00000e-02  1.00000e-02  1.00000e-02
 2.00000e-02  0.00000e+00  0.00000e+00
 2.00000e-02  1.00000e-02  0.00000e+00
 3.00000e-02  0.00000e+00  1.00000e-02
 3.00000e-02  1.00000e-02  1.00000e-02
 3.00000e-02  0.00000e+00  0.00000e+00
 3.00000e-02  1.00000e-02  0.00000e+00
 4.00000e-02  0.00000e+00  1.00000e-02
 4.00000e-02  1.00000e-02  1.00000e-02
 4.00000e-02  0.00000e+00  0.00000e+00
 4.00000e-02  1.00000e-02  0.00000e+00
 5.00000e-02  0.00000e+00  1.00000e-02
 5.00000e-02  1.00000e-02  1.00000e-02
 5.00000e-02  0.00000e+00  0.00000e+00
 5.00000e-02  1.00000e-02  0.00000e+00
 6.00000e-02  0.00000e+00  1.00000e-02
 6.00000e-02  1.00000e-02  1.00000e-02
 6.00000e-02  0.00000e+00  0.00000e+00
 6.00000e-02  1.00000e-02  0.00000e+00
 7.00000e-02  0.00000e+00  1.00000e-02
 7.00000e-02  1.00000e-02  1.00000e-02
 7.00000e-02  0.00000e+00  0.00000e+00
 7.00000e-02  1.00000e-02  0.00000e+00
 8.00000e-02  0.00000e+00  1.00000e-02
 8.00000e-02  1.00000e-02  1.00000e-02
 8.00000e-02  0.00000e+00  0.00000e+00
 8.00000e-02  1.00000e-02  0.00000e+00
 9.00000e-02  0.00000e+00  1.00000e-02
 9.00000e-02  1.00000e-02  1.00000e-02
 9.00000e-02  0.00000e+00  0.00000e+00
 9.00000e-02  1.00000e-02  0.00000e+00
 1.00000e-01  0.00000e+00  1.00000e-02
 1.00000e-01  1.00000e-02  1.00000e-02
 1.00000e-01  0.00000e+00  0.00000e+00
 1.00000e-01  1.00000e-02  0.00000e+00
 1.00000e-02  2.00000e-02  1.00000e-02
 0.00000e+00  2.00000e-02  1.00000e-02
 1.00000e-02  2.00000e-02  0.00000e+00
 0.00000e+00  2.00000e-02  0.00000e+00
 2.00000e-02  2.00000e-02  1.00000e-02
 2.00000e-02  2.00000e-02  0.00000e+00
 3.00000e-02  2.00000e-02  1.00000e-02
 3.00000e-02  2.00000e-02  0.00000e+00
 4.00000e-02  2.00000e-02  1.00000e-02
 4.00000e-02  2.00000e-02  0.00000e+00
 5.00000e-02  2.00000e-02  1.00000e-02
 5.00000e-02  2.00000e-02  0.00000e+00
 6.00000e-02  2.00000e-02  1.00000e-02
 6.00000e-02  2.00000e-02  0.00000e+00
 7.00000e-02  2.00000e-02  1.00000e-02
 7.00000e-02  2.00000e-02  0.00000e+00
 8.00000e-02  2.00000e-02  1.00000e-02
 8.00000e-02  2.00000e-02  0.00000e+00
 9.00000e-02  2.00000e-02  1.00000e-02
 9.00000e-02  2.00000e-02  0.00000e+00
 1.00000e-01  2.00000e-02  1.00000e-02
 1.00000e-01  2.00000e-02  0.00000e+00
 1.00000e-02  3.00000e-02  1.00000e-02
 0.00000e+00  3.00000e-02  1.00000e-02
 1.00000e-02  3.00000e-02  0.00000e+00
 0.00000e+00  3.00000e-02  0.00000e+00
 2.00000e-02  3.00000e-02  1.00000e-02
 2.00000e-02  3.00000e-02  0.00000e+00
 3.00000e-02  3.00000e-02  1.00000e-02
 3.00000e-02  3.00000e-02  0.00000e+00
 4.00000e-02  3.00000e-02  1.00000e-02
 4.00000e-02  3.00000e-02  0.00000e+00
 5.00000e-02  3.00000e-02  1.00000e-02
 5.00000e-02  3.00000e-02  0.00000e+00
 6.00000e-02  3.00000e-02  1.00000e-02
 6.00000e-02  3.00000e-02  0.00000e+00
 7.00000e-02  3.00000e-02  1.00000e-02
 7.00000e-02  3.00000e-02  0.00000e+00
 8.00000e-02  3.00000e-02  1.00000e-02
 8.00000e-02  3.00000e-02  0.00000e+00
 9.00000e-02  3.00000e-02  1.00000e-02
 9.00000e-02  3.00000e-02  0.00000e+00
 1.00000e-01  3.00000e-02  1.00000e-02
 1.00000e-01  3.00000e-02  0.00000e+00
 1.00000e-02  4.00000e-02  1.00000e-02
 0.00000e+00  4.00000e-02  1.00000e-02
 1.00000e-02  4.00000e-02  0.00000e+00
 0.00000e+00  4.00000e-02  0.00000e+00
 2.00000e-02  4.00000e-02  1.00000e-02
 2.00000e-02  4.00000e-02  0.00000e+00
 3.00000e-02  4.00000e-02  1.00000e-02
 3.00000e-02  4.00000e-02  0.00000e+00
 4.00000e-02  4.00000e-02  1.00000e-02
 4.00000e-02  4.00000e-02  0.00000e+00
 5.00000e-02  4.00000e-02  1.00000e-02
 5.00000e-02  4.00000e-02  0.00000e+00
 6.00000e-02  4.00000e-02  1.00000e-02
 6.00000e-02  4.00000e-02  0.00000e+00
 7.00000e-02  4.00000e-02  1.00000e-02
 7.00000e-02  4.00000e-02  0.00000e+00
 8.00000e-02  4.00000e-02  1.00000e-02
 8.00000e-02  4.00000e-02  0.00000e+00
 9.00000e-02  4.00000e-02  1.00000e-02
 9.00000e-02  4.00000e-02  0.00000e+00
 1.00000e-01  4.00000e-02  1.00000e-02
 1.00000e-01  4.00000e-02  0.00000e+00
 1.00000e-02  5.00000e-02  1.00000e-02
 0.00000e+00  5.00000e-02  1.00000e-02
 1.00000e-02  5.00000e-02  0.00000e+00
 0.00000e+00  5.00000e-02  0.00000e+00
 2.00000e-02  5.00000e-02  1.00000e-02
 2.00000e-02  5.00000e-02  0.00000e+00
 3.00000e-02  5.00000e-02  1.00000e-02
 3.00000e-02  5.00000e-02  0.00000e+00
 4.00000e-02  5.00000e-02  1.00000e-02
 4.00000e-02  5.00000e-02  0.00000e+00
 5.00000e-02  5.00000e-02  1.00000e-02
 5.00000e-02  5.00000e-02  0.00000e+00
 6.00000e-02  5.00000e-02  1.00000e-02
 6.00000e-02  5.00000e-02  0.00000e+00
 7.00000e-02  5.00000e-02  1.00000e-02
 7.00000e-02  5.00000e-02  0.00000e+00
 8.00000e-02  5.00000e-02  1.00000e-02
 8.00000e-02  5.00000e-02  0.00000e+00
 9.00000e-02  5.00000e-02  1.00000e-02
 9.00000e-02  5.00000e-02  0.00000e+00
 1.00000e-01  5.00000e-02  1.00000e-02
 1.00000e-01  5.00000e-02  0.00000e+00
 1.00000e-02  6.00000e-02  1.00000e-02
 0.00000e+00  6.00000e-02  1.00000e-02
 1.00000e-02  6.00000e-02  0.00000e+00
 0.00000e+00  6.00000e-02  0.00000e+00
 2.00000e-02  6.00000e-02  1.00000e-02
 2.00000e-02  6.00000e-02  0.00000e+00
 3.00000e-02  6.00000e-02  1.00000e-02
 3.00000e-02  6.00000e-02  0.00000e+00
 4.00000e-02  6.00000e-02  1.00000e-02
 4.00000e-02  6.00000e-02  0.00000e+00
 5.00000e-02  6.00000e-02  1.00000e-02
 5.00000e-02  6.00000e-02  0.00000e+00
 6.00000e-02  6.00000e-02  1.00000e-02
 6.00000e-02  6.00000e-02  0.00000e+00
 7.00000e-02  6.00000e-02  1.00000e-02
 7.00000e-02  6.00000e-02  0.00000e+00
 8.00000e-02  6.00000e-02  1.00000e-02
 8.00000e-02  6.00000e-02  0.00000e+00
 9.00000e-02  6.00000e-02  1.00000e-02
 9.00000e-02  6.00000e-02  0.00000e+00
 1.00000e-01  6.00000e-02  1.00000e-02
 1.00000e-01  6.00000e-02  0.00000e+00
 1.00000e-02  7.00000e-02  1.00000e-02
 0.00000e+00  7.00000e-02  1.00000e-02
 1.00000e-02  7.00000e-02  0.00000e+00
 0.00000e+00  7.00000e-02  0.00000e+00
 2.00000e-02  7.00000e-02  1.00000e-02
 2.00000e-02  7.00000e-02  0.00000e+00
 3.00000e-02  7.00000e-02  1.00000e-02
 3.00000e-02  7.00000e-02  0.00000e+00
 4.00000e-02  7.00000e-02  1.00000e-02
 4.00000e-02  7.00000e-02  0.00000e+00
 5.00000e-02  7.00000e-02  1.00000e-02
 5.00000e-02  7.00000e-02  0.00000e+00
 6.00000e-02  7.00000e-02  1.00000e-02
 6.00000e-02  7.00000e-02  0.00000e+00
 7.00000e-02  7.00000e-02  1.00000e-02
 7.00000e-02  7.00000e-02  0.00000e+00
 8.00000e-02  7.00000e-02  1.00000e-02
 8.00000e-02  7.00000e-02  0.00000e+00
 9.00000e-02  7.00000e-02  1.00000e-02
 9.00000e-02  7.00000e-02  0.00000e+00
 1.00000e-01  7.00000e-02  1.00000e-02
 1.00000e-01  7.00000e-02  0.00000e+00
 1.00000e-02  8.00000e-02  1.00000e-02
 0.00000e+00  8.00000e-02  1.00000e-02
 1.00000e-02  8.00000e-02  0.00000e+00
 0.00000e+00  8.00000e-02  0.00000e+00
 2.00000e-02  8.00000e-02  1.00000e-02
 2.00000e-02  8.00000e-02  0.00000e+00
 3.00000e-02  8.00000e-02  1.00000e-02
 3.00000e-02  8.00000e-02  0.00000e+00
 4.00000e-02  8.00000e-02  1.00000e-02
 4.00000e-02  8.00000e-02  0.00000e+00
 5.00000e-02  8.00000e-02  1.00000e-02
 5.00000e-02  8.00000e-02  0.00000e+00
 6.00000e-02  8.00000e-02  1.00000e-02
 6.00000e-02  8.00000e-02  0.00000e+00
 7.00000e-02  8.00000e-02  1.00000e-02
 7.00000e-02  8.00000e-02  0.00000e+00
 8.00000e-02  8.00000e-02  1.00000e-02
 8.00000e-02  8.00000e-02  0.00000e+00
 9.00000e-02  8.00000e-02  1.00000e-02
 9.00000e-02  8.00000e-02  0.00000e+00
 1.00000e-01  8.00000e-02  1.00000e-02
 1.00000e-01  8.00000e-02  0.00000e+00
 1.00000e-02  9.00000e-02  1.00000e-02
 0.00000e+00  9.00000e-02  1.00000e-02
 1.00000e-02  9.00000e-02  0.00000e+00
 0.00000e+00  9.00000e-02  0.00000e+00
 2.00000e-02  9.00000e-02  1.00000e-02
 2.00000e-02  9.00000e-02  0.00000e+00
 3.00000e-02  9.00000e-02  1.00000e-02
 3.00000e-02  9.00000e-02  0.00000e+00
 4.00000e-02  9.00000e-02  1.00000e-02
 4.00000e-02  9.00000e-02  0.00000e+00
 5.00000e-02  9.00000e-02  1.00000e-02
 5.00000e-02  9.00000e-02  0.00000e+00
 6.00000e-02  9.00000e-02  1.00000e-02
 6.00000e-02  9.00000e-02  0.00000e+00
 7.00000e-02  9.00000e-02  1.00000e-02
 7.00000e-02  9.00000e-02  0.00000e+00
 8.00000e-02  9.00000e-02  1.00000e-02
 8.00000e-02  9.00000e-02  0.00000e+00
 9.00000e-02  9.00000e-02  1.00000e-02
 9.00000e-02  9.00000e-02  0.00000e+00
 1.00000e-01  9.00000e-02  1.00000e-02
 1.00000e-01  9.00000e-02  0.00000e+00
 1.00000e-02  1.00000e-01  1.00000e-02
 0.00000e+00  1.00000e-01  1.00000e-02
 1.00000e-02  1.00000e-01  0.00000e+00
 0.00000e+00  1.00000e-01  0.00000e+00
 2.00000e-02  1.00000e-01  1.00000e-02
 2.00000e-02  1.00000e-01  0.00000e+00
 3.00000e-02  1.00000e-01  1.00000e-02
 3.00000e-02  1.00000e-01  0.00000e+00
 4.00000e-02  1.00000e-01  1.00000e-02
 4.00000e-02  1.00000e-01  0.00000e+00
 5.00000e-02  1.00000e-01  1.00000e-02
 5.00000e-02  1.00000e-01  0.00000e+00
 6.00000e-02  1.00000e-01  1.00000e-02
 6.00000e-02  1.00000e-01  0.00000e+00
 7.00000e-02  1.00000e-01  1.00000e-02
 7.00000e-02  1.00000e-01  0.00000e+00
 8.00000e-02  1.00000e-01  1.00000e-02
 8.00000e-02  1.00000e-01  0.00000e+00
 9.00000e-02  1.00000e-01  1.00000e-02
 9.00000e-02  1.00000e-01  0.00000e+00
 1.00000e-01  1.00000e-01  1.00000e-02
 1.00000e-01  1.00000e-01  0.00000e+00
 0.00000e+00  1.00000e-02  2.00000e-02
 1.00000e-02  1.00000e-02  2.00000e-02
 0.00000e+00  0.00000e+00  2.00000e-02
 1.00000e-02  0.00000e+00  2.00000e-02
 2.00000e-02  1.00000e-02  2.00000e-02
 2.00000e-02  0.00000e+00  2.00000e-02
 3.00000e-02  1.00000e-02  2.00000e-02
 3.00000e-02  0.00000e+00  2.00000e-02
 4.00000e-02  1.00000e-02  2.00000e-02
 4.00000e-02  0.00000e+00  2.00000e-02
 5.00000e-02  1.00000e-02  2.00000e-02
 5.00000e-02  0.00000e+00  2.00000e-02
[...]
CELL_DATA 1000
SCALARS Pressure double
LOOKUP_TABLE default
 0.00000e+00
 1.81701e-04
 2.97445e-04
 3.84901e-04
 4.60114e-04
 5.31856e-04
 6.07164e-04
 6.94863e-04
 8.11151e-04
 9.93968e-04
 1.73901e-04
 2.47914e-04
 3.25777e-04
 3.97215e-04
 4.63621e-04
 5.28310e-04
 5.94786e-04
 6.66383e-04
 7.44527e-04
 8.18949e-04
 2.73699e-04
 3.10086e-04
 3.60565e-04
 4.14597e-04
 4.68872e-04
 5.22998e-04
 5.77318e-04
 6.31442e-04
 6.82057e-04
 7.18580e-04
 3.37282e-04
 3.58164e-04
 3.91824e-04
 4.31759e-04
 4.74291e-04
 5.17511e-04
 5.60069e-04
 6.00055e-04
 6.33778e-04
 6.54715e-04
 3.80108e-04
 3.93488e-04
 4.16828e-04
 4.46339e-04
 4.79035e-04
 5.12701e-04
 5.45412e-04
 5.74950e-04
 5.98321e-04
 6.11725e-04
 4.09618e-04
 4.18866e-04
 4.35678e-04
 4.57749e-04
 4.82821e-04
 5.08859e-04
 5.33939e-04
 5.56024e-04
 5.72851e-04
 5.82112e-04
 4.29915e-04
 4.36694e-04
 4.49282e-04
 4.66171e-04
 4.85648e-04
 5.05986e-04
 5.25468e-04
 5.42364e-04
 5.54961e-04
 5.61746e-04
 4.43459e-04
 4.48719e-04
 4.58598e-04
 4.72014e-04
 4.87625e-04
 5.03976e-04
 5.19589e-04
 5.33009e-04
 5.42893e-04
 5.48157e-04
 4.51760e-04
 4.56131e-04
 4.64387e-04
 4.75672e-04
 4.88866e-04
 5.02712e-04
 5.15908e-04
 5.27195e-04
 5.35455e-04
 5.39829e-04
 4.55709e-04
 4.59666e-04
 4.67160e-04
 4.77430e-04
 4.89465e-04
 5.02103e-04
 5.14139e-04
 5.24411e-04
 5.31907e-04
 5.35867e-04
-1.06209e-06
 1.81293e-04
 2.97305e-04
 3.84844e-04
 4.60086e-04
 5.31840e-04
 6.07154e-04
 6.94856e-04
 8.11155e-04
 9.93920e-04
 1.73492e-04
 2.47706e-04
 3.25682e-04
 3.97169e-04
 4.63597e-04
 5.28296e-04
 5.94778e-04
 6.66381e-04
 7.44535e-04
 8.18954e-04
 2.73559e-04
 3.09990e-04
 3.60510e-04
 4.14566e-04
 4.68854e-04
 5.22987e-04
 5.77312e-04
 6.31440e-04
 6.82057e-04
 7.18576e-04
 3.37224e-04
 3.58119e-04
 3.91792e-04
 4.31738e-04
 4.74277e-04
 5.17503e-04
 5.60064e-04
 6.00051e-04
 6.33775e-04
 6.54710e-04
 3.80080e-04
 3.93464e-04
 4.16809e-04
 4.46326e-04
 4.79026e-04
 5.12695e-04
 5.45407e-04
 5.74947e-04
 5.98318e-04
 6.11721e-04
 4.09603e-04
 4.18853e-04
 4.35666e-04
 4.57740e-04
 4.82814e-04
 5.08854e-04
 5.33935e-04
 5.56021e-04
 5.72848e-04
 5.82108e-04
 4.29906e-04
 4.36685e-04
 4.49275e-04
 4.66165e-04
 4.85643e-04
 5.05982e-04
 5.25464e-04
 5.42361e-04
 5.54958e-04
 5.61743e-04
 4.43453e-04
 4.48713e-04
 4.58593e-04
 4.72010e-04
 4.87621e-04
 5.03973e-04
 5.19586e-04
 5.33007e-04
 5.42891e-04
 5.48155e-04
 4.51755e-04
 4.56126e-04
 4.64383e-04
 4.75669e-04
 4.88863e-04
 5.02709e-04
 5.15905e-04
 5.27193e-04
 5.35453e-04
 5.39826e-04
 4.55705e-04
 4.59663e-04
 4.67156e-04
 4.77427e-04
 4.89462e-04
 5.02100e-04
 5.14136e-04
 5.24409e-04
 5.31905e-04
 5.35865e-04
-1.60633e-06
 1.80995e-04
 2.97157e-04
 3.84768e-04
 4.60045e-04
 5.31815e-04
 6.07138e-04
 6.94845e-04
 8.11147e-04
 9.93902e-04
 1.73195e-04
 2.47511e-04
 3.25570e-04
 3.97106e-04
 4.63561e-04
 5.28274e-04
 5.94765e-04
 6.66373e-04
 7.44530e-04
 8.18948e-04
 2.73411e-04
 3.09878e-04
 3.60436e-04
 4.14520e-04
 4.68825e-04
 5.22969e-04
 5.77300e-04
 6.31433e-04
 6.82051e-04
 7.18570e-04
 3.37148e-04
 3.58056e-04
 3.91746e-04
 4.31707e-04
 4.74256e-04
 5.17488e-04
 5.60054e-04
 6.00045e-04
 6.33770e-04
 6.54704e-04
 3.80039e-04
 3.93428e-04
 4.16781e-04
 4.46305e-04
 4.79010e-04
 5.12684e-04
 5.45399e-04
 5.74941e-04
 5.98313e-04
 6.11716e-04
 4.09579e-04
 4.18831e-04
 4.35648e-04
 4.57726e-04
 4.82803e-04
 5.08846e-04
 5.33928e-04
 5.56016e-04
 5.72843e-04
 5.82104e-04
 4.29891e-04
 4.36672e-04
 4.49263e-04
 4.66155e-04
 4.85635e-04
 5.05975e-04
 5.25459e-04
 5.42357e-04
 5.54954e-04
 5.61739e-04
 4.43443e-04
 4.48704e-04
 4.58584e-04
 4.72002e-04
 4.87614e-04
 5.03968e-04
 5.19581e-04
 5.33003e-04
 5.42887e-04
 5.48151e-04
 4.51748e-04
 4.56119e-04
 4.64377e-04
 4.75663e-04
 4.88858e-04
 5.02705e-04
 5.15901e-04
 5.27190e-04
 5.35450e-04
 5.39823e-04
 4.55699e-04
 4.59657e-04
 4.67151e-04
 4.77422e-04
 4.89458e-04
 5.02097e-04
 5.14133e-04
 5.24406e-04
 5.31902e-04
 5.35862e-04
-1.87573e-06
 1.80805e-04
 2.97038e-04
 3.84695e-04
 4.60001e-04
 5.31787e-04
 6.07120e-04
 6.94832e-04
 8.11136e-04
 9.93890e-04
 1.73005e-04
 2.47366e-04
 3.25472e-04
 3.97044e-04
 4.63521e-04
 5.28249e-04
 5.94748e-04
 6.66361e-04
 7.44521e-04
 8.18939e-04
 2.73291e-04
 3.09781e-04
 3.60365e-04
 4.14471e-04
 4.68793e-04
 5.22947e-04
 5.77285e-04
 6.31422e-04
 6.82043e-04
 7.18562e-04
 3.37076e-04
 3.57994e-04
 3.91698e-04
 4.31671e-04
 4.74231e-04
 5.17471e-04
 5.60042e-04
 6.00035e-04
 6.33762e-04
 6.54698e-04
 3.79995e-04
 3.93388e-04
 4.16748e-04
 4.46280e-04
 4.78991e-04
 5.12670e-04
 5.45389e-04
 5.74933e-04
 5.98306e-04
 6.11710e-04
 4.09551e-04
 4.18806e-04
 4.35626e-04
 4.57708e-04
 4.82789e-04
 5.08835e-04
 5.33920e-04
 5.56009e-04
 5.72838e-04
 5.82098e-04
 4.29873e-04
 4.36654e-04
 4.49248e-04
 4.66142e-04
 4.85625e-04
 5.05967e-04
 5.25452e-04
 5.42351e-04
 5.54949e-04
 5.61734e-04
 4.43430e-04
 4.48692e-04
 4.58574e-04
 4.71993e-04
 4.87606e-04
 5.03961e-04
 5.19576e-04
 5.32998e-04
 5.42883e-04
 5.48147e-04
 4.51738e-04
 4.56110e-04
 4.64368e-04
 4.75655e-04
 4.88852e-04
 5.02699e-04
 5.15897e-04
 5.27185e-04
 5.35446e-04
 5.39820e-04
 4.55691e-04
 4.59649e-04
 4.67143e-04
 4.77416e-04
 4.89452e-04
 5.02091e-04
 5.14128e-04
 5.24402e-04
 5.31899e-04
 5.35859e-04
-2.02689e-06
 1.80683e-04
 2.96950e-04
 3.84635e-04
 4.59960e-04
 5.31760e-04
 6.07101e-04
 6.94819e-04
 8.11125e-04
 9.93879e-04
 1.72882e-04
 2.47264e-04
 3.25397e-04
 3.96991e-04
 4.63485e-04
 5.28224e-04
 5.94730e-04
 6.66348e-04
 7.44510e-04
 8.18929e-04
 2.73203e-04
 3.09705e-04
 3.60306e-04
 4.14428e-04
 4.68762e-04
 5.22925e-04
 5.77270e-04
 6.31410e-04
 6.82034e-04
 7.18554e-04
 3.37016e-04
 3.57940e-04
 3.91654e-04
 4.31638e-04
 4.74206e-04
 5.17453e-04
 5.60028e-04
 6.00025e-04
 6.33754e-04
 6.54690e-04
 3.79955e-04
 3.93352e-04
 4.16717e-04
 4.46255e-04
 4.78972e-04
 5.12655e-04
 5.45378e-04
 5.74924e-04
 5.98299e-04
 6.11703e-04
 4.09524e-04
 4.18780e-04
 4.35604e-04
 4.57690e-04
 4.82774e-04
 5.08823e-04
 5.33911e-04
 5.56001e-04
 5.72831e-04
 5.82093e-04
 4.29854e-04
 4.36637e-04
 4.49232e-04
 4.66129e-04
 4.85614e-04
 5.05958e-04
 5.25445e-04
 5.42345e-04
 5.54943e-04
 5.61729e-04
 4.43416e-04
 4.48679e-04
 4.58562e-04
 4.71983e-04
 4.87597e-04
 5.03953e-04
 5.19569e-04
 5.32992e-04
 5.42878e-04
 5.48142e-04
 4.51728e-04
 4.56100e-04
 4.64359e-04
 4.75647e-04
 4.88844e-04
 5.02693e-04
 5.15891e-04
 5.27181e-04
 5.35441e-04
 5.39815e-04
 4.55681e-04
 4.59640e-04
 4.67135e-04
 4.77408e-04
 4.89445e-04
 5.02086e-04
 5.14123e-04
 5.24398e-04
 5.31895e-04
 5.35855e-04
-2.11942e-06
 1.80603e-04
 2.96887e-04
 3.84588e-04
 4.59927e-04
 5.31736e-04
 6.07084e-04
 6.94805e-04
 8.11115e-04
 9.93870e-04
 1.72803e-04
 2.47194e-04
 3.25340e-04
 3.96948e-04
 4.63453e-04
 5.28201e-04
 5.94714e-04
 6.66336e-04
 7.44500e-04
 8.18920e-04
 2.73141e-04
 3.09649e-04
 3.60260e-04
 4.14392e-04
 4.68735e-04
 5.22905e-04
 5.77255e-04
 6.31399e-04
 6.82024e-04
 7.18545e-04
 3.36969e-04
 3.57898e-04
 3.91618e-04
 4.31609e-04
 4.74184e-04
 5.17436e-04
 5.60015e-04
 6.00015e-04
 6.33745e-04
 6.54682e-04
 3.79921e-04
 3.93320e-04
 4.16690e-04
 4.46233e-04
 4.78955e-04
 5.12641e-04
 5.45367e-04
 5.74915e-04
 5.98291e-04
 6.11696e-04
 4.09500e-04
 4.18758e-04
 4.35584e-04
 4.57673e-04
 4.82760e-04
 5.08812e-04
 5.33902e-04
 5.55994e-04
 5.72825e-04
 5.82087e-04
 4.29837e-04
 4.36620e-04
 4.49217e-04
 4.66116e-04
 4.85603e-04
 5.05949e-04
 5.25437e-04
 5.42338e-04
 5.54938e-04
 5.61724e-04
 4.43403e-04
 4.48666e-04
 4.58550e-04
 4.71973e-04
 4.87589e-04
 5.03946e-04
 5.19563e-04
 5.32987e-04
 5.42873e-04
 5.48138e-04
 4.51717e-04
 4.56090e-04
 4.64350e-04
 4.75639e-04
 4.88837e-04
 5.02686e-04
 5.15886e-04
 5.27176e-04
 5.35437e-04
 5.39811e-04
 4.55672e-04
 4.59631e-04
 4.67127e-04
 4.77401e-04
 4.89438e-04
 5.02080e-04
 5.14118e-04
 5.24393e-04
 5.31891e-04
 5.35851e-04
-2.17892e-06
 1.80550e-04
 2.96843e-04
 3.84554e-04
 4.59900e-04
 5.31716e-04
 6.07069e-04
 6.94794e-04
 8.11105e-04
 9.93862e-04
 1.72750e-04
 2.47146e-04
 3.25300e-04
 3.96916e-04
 4.63429e-04
 5.28182e-04
 5.94700e-04
 6.66325e-04
 7.44491e-04
 8.18912e-04
 2.73097e-04
 3.09609e-04
 3.60226e-04
 4.14365e-04
 4.68713e-04
 5.22889e-04
 5.77242e-04
 6.31389e-04
 6.82016e-04
 7.18538e-04
 3.36935e-04
 3.57866e-04
 3.91591e-04
 4.31586e-04
 4.74166e-04
 5.17421e-04
 5.60004e-04
 6.00006e-04
 6.33737e-04
 6.54675e-04
 3.79895e-04
 3.93296e-04
 4.16669e-04
 4.46214e-04
 4.78940e-04
 5.12629e-04
 5.45357e-04
 5.74907e-04
 5.98285e-04
 6.11690e-04
 4.09480e-04
 4.18739e-04
 4.35568e-04
 4.57659e-04
 4.82748e-04
 5.08802e-04
 5.33894e-04
 5.55987e-04
 5.72819e-04
 5.82081e-04
 4.29822e-04
 4.36606e-04
 4.49204e-04
 4.66105e-04
 4.85593e-04
 5.05941e-04
 5.25430e-04
 5.42333e-04
 5.54933e-04
 5.61719e-04
 4.43392e-04
 4.48655e-04
 4.58540e-04
 4.71964e-04
 4.87581e-04
 5.03939e-04
 5.19558e-04
 5.32982e-04
 5.42869e-04
 5.48134e-04
 4.51708e-04
 4.56081e-04
 4.64341e-04
 4.75631e-04
 4.88830e-04
 5.02681e-04
 5.15881e-04
 5.27172e-04
 5.35433e-04
 5.39808e-04
 4.55664e-04
 4.59623e-04
 4.67119e-04
 4.77394e-04
 4.89432e-04
 5.02075e-04
 5.14114e-04
 5.24389e-04
 5.31887e-04
 5.35847e-04
-2.21961e-06
 1.80515e-04
 2.96814e-04
 3.84530e-04
 4.59881e-04
 5.31702e-04
 6.07057e-04
 6.94785e-04
 8.11099e-04
 9.93859e-04
 1.72715e-04
 2.47115e-04
 3.25273e-04
 3.96894e-04
 4.63411e-04
 5.28168e-04
 5.94688e-04
 6.66315e-04
 7.44483e-04
 8.18906e-04
 2.73067e-04
 3.09582e-04
 3.60202e-04
 4.14345e-04
 4.68697e-04
 5.22876e-04
 5.77231e-04
 6.31380e-04
 6.82008e-04
 7.18532e-04
 3.36911e-04
 3.57844e-04
 3.91571e-04
 4.31570e-04
 4.74152e-04
 5.17410e-04
 5.59995e-04
 5.99998e-04
 6.33731e-04
 6.54670e-04
 3.79876e-04
 3.93278e-04
 4.16653e-04
 4.46201e-04
 4.78928e-04
 5.12620e-04
 5.45350e-04
 5.74901e-04
 5.98279e-04
 6.11685e-04
 4.09465e-04
 4.18725e-04
 4.35555e-04
 4.57648e-04
 4.82739e-04
 5.08795e-04
 5.33887e-04
 5.55982e-04
 5.72814e-04
 5.82077e-04
 4.29811e-04
 4.36595e-04
 4.49194e-04
 4.66096e-04
 4.85586e-04
 5.05934e-04
 5.25425e-04
 5.42328e-04
 5.54929e-04
 5.61716e-04
 4.43383e-04
 4.48647e-04
 4.58532e-04
 4.71956e-04
 4.87575e-04
 5.03934e-04
 5.19553e-04
 5.32978e-04
 5.42865e-04
 5.48131e-04
 4.51701e-04
 4.56074e-04
 4.64335e-04
 4.75625e-04
 4.88825e-04
 5.02676e-04
 5.15877e-04
 5.27168e-04
 5.35430e-04
 5.39805e-04
 4.55657e-04
 4.59616e-04
 4.67113e-04
 4.77388e-04
 4.89428e-04
 5.02070e-04
 5.14110e-04
 5.24386e-04
 5.31884e-04
 5.35845e-04
-2.25329e-06
 1.80495e-04
 2.96796e-04
 3.84515e-04
 4.59869e-04
 5.31692e-04
 6.07050e-04
 6.94779e-04
 8.11094e-04
 9.93866e-04
 1.72694e-04
 2.47098e-04
 3.25258e-04
 3.96880e-04
 4.63400e-04
 5.28159e-04
 5.94680e-04
 6.66308e-04
 7.44476e-04
 8.18902e-04
 2.73049e-04
 3.09566e-04
 3.60189e-04
 4.14333e-04
 4.68687e-04
 5.22867e-04
 5.77224e-04
 6.31373e-04
 6.82002e-04
 7.18527e-04
 3.36895e-04
 3.57830e-04
 3.91559e-04
 4.31559e-04
 4.74143e-04
 5.17403e-04
 5.59989e-04
 5.99993e-04
 6.33726e-04
 6.54666e-04
 3.79863e-04
 3.93267e-04
 4.16643e-04
 4.46192e-04
 4.78921e-04
 5.12614e-04
 5.45344e-04
 5.74896e-04
 5.98276e-04
 6.11682e-04
 4.09455e-04
 4.18716e-04
 4.35547e-04
 4.57641e-04
 4.82733e-04
 5.08790e-04
 5.33883e-04
 5.55978e-04
 5.72811e-04
 5.82075e-04
 4.29803e-04
 4.36588e-04
 4.49188e-04
 4.66090e-04
 4.85581e-04
 5.05930e-04
 5.25422e-04
 5.42325e-04
 5.54927e-04
 5.61713e-04
 4.43377e-04
 4.48641e-04
 4.58527e-04
 4.71952e-04
 4.87571e-04
 5.03931e-04
 5.19550e-04
 5.32976e-04
 5.42863e-04
 5.48129e-04
 4.51695e-04
 4.56069e-04
 4.64330e-04
 4.75621e-04
 4.88822e-04
 5.02673e-04
 5.15874e-04
 5.27166e-04
 5.35428e-04
 5.39803e-04
 4.55652e-04
 4.59612e-04
 4.67109e-04
 4.77385e-04
 4.89424e-04
 5.02068e-04
 5.14107e-04
 5.24384e-04
 5.31882e-04
 5.35843e-04
-2.30678e-06
 1.80495e-04
 2.96787e-04
 3.84507e-04
 4.59863e-04
 5.31688e-04
 6.07047e-04
 6.94776e-04
 8.11082e-04
 9.93907e-04
 1.72694e-04
 2.47102e-04
 3.25255e-04
 3.96875e-04
 4.63394e-04
 5.28154e-04
 5.94676e-04
 6.66301e-04
 7.44462e-04
 8.18891e-04
 2.73040e-04
 3.09563e-04
 3.60185e-04
 4.14328e-04
 4.68683e-04
 5.22863e-04
 5.77220e-04
 6.31368e-04
 6.81996e-04
 7.18527e-04
 3.36887e-04
 3.57825e-04
 3.91555e-04
 4.31555e-04
 4.74139e-04
 5.17399e-04
 5.59985e-04
 5.99989e-04
 6.33724e-04
 6.54666e-04
 3.79856e-04
 3.93261e-04
 4.16638e-04
 4.46188e-04
 4.78918e-04
 5.12611e-04
 5.45342e-04
 5.74894e-04
 5.98274e-04
 6.11682e-04
 4.09450e-04
 4.18712e-04
 4.35543e-04
 4.57638e-04
 4.82730e-04
 5.08787e-04
 5.33881e-04
 5.55977e-04
 5.72810e-04
 5.82074e-04
 4.29799e-04
 4.36584e-04
 4.49185e-04
 4.66087e-04
 4.85578e-04
 5.05928e-04
 5.25420e-04
 5.42324e-04
 5.54926e-04
 5.61713e-04
 4.43373e-04
 4.48638e-04
 4.58524e-04
 4.71949e-04
 4.87569e-04
 5.03929e-04
 5.19549e-04
 5.32975e-04
 5.42863e-04
 5.48128e-04
 4.51693e-04
 4.56066e-04
 4.64328e-04
 4.75619e-04
 4.88820e-04
 5.02672e-04
 5.15873e-04
 5.27165e-04
 5.35428e-04
 5.39803e-04
 4.55650e-04
 4.59610e-04
 4.67107e-04
 4.77383e-04
 4.89423e-04
 5.02066e-04
 5.14107e-04
 5.24383e-04
 5.31882e-04
 5.35843e-04
VECTORS Velocity double
 2.15458e-04 -7.09499e-05  3.05188e-07
 1.69886e-04 -2.70983e-05  1.20732e-07
 2.08068e-04 -1.15923e-05  4.09070e-08
 2.24616e-04 -5.03803e-06  1.66817e-08
 2.31036e-04 -1.43624e-06  8.19047e-09
 2.31010e-04  1.44615e-06  4.66826e-09
 2.24523e-04  5.05451e-06  3.23227e-09
 2.07852e-04  1.16313e-05  2.13935e-09
 1.69410e-04  2.72097e-05 -2.25394e-09
 2.15158e-04  7.12682e-05  1.86853e-08
-2.97700e-05 -1.11633e-04  1.21163e-07
-6.16212e-05 -5.24576e-05  6.25933e-08
-6.05694e-05 -2.57861e-05  2.84479e-08
-5.58738e-05 -1.21316e-05  1.36344e-08
-5.31068e-05 -3.58083e-06  6.96123e-09
-5.31272e-05  3.61019e-06  3.97440e-09
-5.59399e-05  1.21761e-05  2.04282e-09
-6.06950e-05  2.58763e-05  3.23521e-11
-6.18144e-05  5.26715e-05 -3.60949e-09
-2.98573e-05  1.12133e-04 -2.54857e-09
-1.48346e-05 -6.67767e-05  4.09897e-08
-3.54766e-05 -4.50539e-05  2.85223e-08
-4.26872e-05 -2.69872e-05  1.67555e-08
-4.42294e-05 -1.41158e-05  9.45200e-09
-4.42614e-05 -4.36436e-06  5.42604e-09
-4.42750e-05  4.40206e-06  3.14539e-09
-4.42709e-05  1.41667e-05  1.63789e-09
-4.27556e-05  2.70708e-05  3.68708e-10
-3.55589e-05  4.52028e-05 -4.72539e-10
-1.48765e-05  6.70352e-05  1.41037e-09
-8.51150e-06 -4.34792e-05  1.67955e-08
-2.22710e-05 -3.40764e-05  1.34420e-08
-3.00553e-05 -2.29871e-05  9.43895e-09
-3.36749e-05 -1.29705e-05  6.17463e-09
-3.50129e-05 -4.15742e-06  3.94354e-09
-3.50209e-05  4.19673e-06  2.47932e-09
-3.36980e-05  1.30189e-05  1.47595e-09
-3.00897e-05  2.30553e-05  8.26546e-10
-2.23068e-05  3.41758e-05  7.12168e-10
-8.52807e-06  4.36134e-05  1.55168e-09
-5.45247e-06 -2.95522e-05  7.85854e-09
-1.49917e-05 -2.47989e-05  6.92430e-09
-2.15819e-05 -1.79164e-05  5.45913e-09
-2.54004e-05 -1.06202e-05  3.99523e-09
-2.70949e-05 -3.48978e-06  2.81087e-09
-2.70994e-05  3.52568e-06  1.93961e-09
-2.54129e-05  1.06617e-05  1.33086e-09
-2.15993e-05  1.79687e-05  9.93082e-10
-1.50082e-05  2.48658e-05  9.82120e-10
-5.45958e-06  2.96322e-05  1.27070e-09
-3.76848e-06 -2.03466e-05  4.35016e-09
-1.06385e-05 -1.76501e-05  3.88356e-09
-1.58766e-05 -1.32588e-05  3.30744e-09
-1.92483e-05 -8.10370e-06  2.63698e-09
-2.08671e-05 -2.70603e-06  2.01979e-09
-2.08695e-05  2.73611e-06  1.52582e-09
-1.92550e-05  8.13691e-06  1.16993e-09
-1.58855e-05  1.32978e-05  9.79555e-10
-1.06468e-05  1.76960e-05  9.60748e-10
-3.77201e-06  2.03979e-05  1.05081e-09
-2.76176e-06 -1.38236e-05  2.57432e-09
-7.90572e-06 -1.21945e-05  2.40864e-09
-1.20355e-05 -9.36361e-06  2.15002e-09
-1.48476e-05 -5.82909e-06  1.82438e-09
-1.62551e-05 -1.96588e-06  1.49872e-09
-1.62565e-05  1.98927e-06  1.21699e-09
-1.48512e-05  5.85415e-06  1.01225e-09
-1.20402e-05  9.39165e-06  9.01032e-10
-7.91000e-06  1.22259e-05  8.74736e-10
-2.76359e-06  1.38574e-05  8.82830e-10
-2.14296e-06 -8.92299e-06  1.78394e-09
-6.17970e-06 -7.93975e-06  1.63888e-09
-9.51109e-06 -6.17074e-06  1.51242e-09
-1.18505e-05 -3.88244e-06  1.34726e-09
-1.30487e-05 -1.31703e-06  1.16710e-09
-1.30495e-05  1.33356e-06  1.00543e-09
-1.18526e-05  3.89985e-06  8.86420e-10
-9.51372e-06  6.18962e-06  8.11266e-10
-6.18223e-06  7.96019e-06  7.79897e-10
-2.14412e-06  8.94445e-06  7.68475e-10
-1.78067e-06 -5.00257e-06  1.31308e-09
-5.15418e-06 -4.47072e-06  1.23829e-09
-7.97815e-06 -3.49670e-06  1.17056e-09
-9.99391e-06 -2.21268e-06  1.07014e-09
-1.10391e-05 -7.53029e-07  9.59540e-10
-1.10396e-05  7.62727e-07  8.61474e-10
-9.99517e-06  2.22279e-06  7.81406e-10
-7.97985e-06  3.50747e-06  7.26351e-10
-5.15587e-06  4.48215e-06  6.94123e-10
-1.78147e-06  5.01448e-06  6.77713e-10
-1.61216e-06 -1.60947e-06  1.12081e-09
-4.67387e-06 -1.44096e-06  1.03145e-09
-7.25251e-06 -1.13009e-06  9.85051e-10
-9.10623e-06 -7.16909e-07  9.03538e-10
-1.00726e-05 -2.44346e-07  8.37953e-10
-1.00730e-05  2.47485e-07  7.54194e-10
-9.10718e-06  7.20171e-07  7.00189e-10
-7.25383e-06  1.13354e-06  6.52891e-10
-4.67526e-06  1.44460e-06  6.37063e-10
-1.61284e-06  1.61323e-06  5.85941e-10
 2.15274e-04 -7.11362e-05  4.64283e-07
 1.69622e-04 -2.71570e-05  2.08410e-07
 2.07964e-04 -1.16049e-05  8.47106e-08
 2.24583e-04 -5.04115e-06  3.92396e-08
 2.31024e-04 -1.43750e-06  2.04252e-08
 2.31005e-04  1.44544e-06  1.18752e-08
 2.24521e-04  5.05331e-06  7.72124e-09
 2.07847e-04  1.16292e-05  5.13696e-09
 1.69426e-04  2.72084e-05  7.09665e-11
 2.15179e-04  7.12469e-05  2.54628e-08
-2.98286e-05 -1.11899e-04  2.09164e-07
-6.17140e-05 -5.25503e-05  1.20626e-07
-6.06184e-05 -2.58104e-05  6.17847e-08
-5.58953e-05 -1.21388e-05  3.22871e-08
-5.31165e-05 -3.58362e-06  1.77107e-08
-5.31321e-05  3.60865e-06  1.03605e-08
-5.59438e-05  1.21745e-05  5.93956e-09
-6.07007e-05  2.58745e-05  2.25160e-09
-6.18170e-05  5.26732e-05 -2.46051e-09
-2.98563e-05  1.12116e-04 -5.90774e-10
-1.48471e-05 -6.68812e-05  8.50247e-08
-3.55009e-05 -4.51031e-05  6.18394e-08
-4.27063e-05 -2.70063e-05  3.86995e-08
-4.42408e-05 -1.41233e-05  2.31258e-08
-4.42677e-05 -4.36738e-06  1.39066e-08
-4.42788e-05  4.40056e-06  8.42932e-09
-4.42737e-05  1.41662e-05  4.94210e-09
-4.27577e-05  2.70716e-05  2.38280e-09
-3.55578e-05  4.52071e-05  9.11259e-10
-1.48747e-05  6.70393e-05  3.15176e-09
-8.51487e-06 -4.35124e-05  3.92794e-08
-2.22784e-05 -3.40980e-05  3.20960e-08
-3.00625e-05 -2.29984e-05  2.31458e-08
-3.36804e-05 -1.29759e-05  1.55904e-08
-3.50166e-05 -4.16003e-06  1.02574e-08
-3.50234e-05  4.19552e-06  6.66665e-09
-3.36997e-05  1.30186e-05  4.26481e-09
-3.00905e-05  2.30560e-05  2.74074e-09
-2.23061e-05  3.41773e-05  2.27198e-09
-8.52724e-06  4.36133e-05  3.22898e-09
-5.45341e-06 -2.95646e-05  2.00727e-08
-1.49941e-05 -2.48084e-05  1.76485e-08
-2.15848e-05 -1.79225e-05  1.39776e-08
-2.54031e-05 -1.06238e-05  1.03411e-08
-2.70970e-05 -3.49170e-06  7.38543e-09
-2.71008e-05  3.52472e-06  5.18267e-09
-2.54139e-05  1.06613e-05  3.65574e-09
-2.15997e-05  1.79689e-05  2.74612e-09
-1.50079e-05  2.48661e-05  2.50417e-09
-5.45930e-06  2.96317e-05  2.79240e-09
-3.76895e-06 -2.03519e-05  1.13747e-08
-1.06396e-05 -1.76546e-05  1.02952e-08
-1.58778e-05 -1.32621e-05  8.72281e-09
-1.92496e-05 -8.10587e-06  6.94028e-09
-2.08682e-05 -2.70734e-06  5.32819e-09
-2.08703e-05  2.73538e-06  4.02496e-09
-1.92555e-05  8.13659e-06  3.08382e-09
-1.58857e-05  1.32977e-05  2.52406e-09
-1.06467e-05  1.76959e-05  2.34359e-09
-3.77193e-06  2.03975e-05  2.38030e-09
-2.76193e-06 -1.38262e-05  6.94454e-09
-7.90614e-06 -1.21968e-05  6.49620e-09
-1.20361e-05 -9.36540e-06  5.74061e-09
-1.48483e-05 -5.83038e-06  4.82742e-09
-1.62557e-05 -1.96673e-06  3.93429e-09
-1.62569e-05  1.98875e-06  3.16197e-09
-1.48516e-05  5.85387e-06  2.59189e-09
-1.20403e-05  9.39148e-06  2.23882e-09
-7.91002e-06  1.22257e-05  2.09391e-09
-2.76358e-06  1.38571e-05  2.04417e-09
-2.14311e-06 -8.92425e-06  4.70601e-09
-6.17997e-06 -7.94092e-06  4.41727e-09
-9.51138e-06 -6.17172e-06  4.03618e-09
-1.18509e-05 -3.88319e-06  3.53915e-09
-1.30491e-05 -1.31757e-06  3.02190e-09
-1.30497e-05  1.33320e-06  2.55945e-09
-1.18528e-05  3.89962e-06  2.20134e-09