# vtk DataFile Version 2.0
FlowField
ASCII
DATASET UNSTRUCTURED_GRID
POINTS 1331 double
 0.00000e+00  1.00000e-02  1.00000e-02
 0.00000e+00  0.00000e+00  1.00000e-02
 1.00000e-02  0.00000e+00  1.00000e-02
 1.00000e-02  1.00000e-02  1.00000e-02
 0.00000e+00  1.00000e-02  0.00000e+00
 0.00000e+00  0.00000e+00  0.00000e+00
 1.00000e-02  0.00000e+00  0.00000e+00
 1.00000e-02  1.00000e-02  0.00000e+00
 2.00000e-02  0.00000e+00  1.00000e-02
 2.00000e-02  1.00000e-02  1.00000e-02
 2.00000e-02  0.00000e+00  0.00000e+00
 2.00000e-02  1.00000e-02  0.00000e+00
 3.00000e-02  0.00000e+00  1.00000e-02
 3.00000e-02  1.00000e-02  1.00000e-02
 3.00000e-02  0.00000e+00  0.00000e+00
 3.00000e-02  1.00000e-02  0.00000e+00
 4.00000e-02  0.00000e+00  1.00000e-02
 4.00000e-02  1.00000e-02  1.00000e-02
 4.00000e-02  0.00000e+00  0.00000e+00
 4.00000e-02  1.00000e-02  0.00000e+00
 5.00000e-02  0.00000e+00  1.00000e-02
 5.00000e-02  1.00000e-02  1.00000e-02
 5.00000e-02  0.00000e+00  0.00000e+00
 5.00000e-02  1.00000e-02  0.00000e+00
 6.00000e-02  0.00000e+00  1.00000e-02
 6.00000e-02  1.00000e-02  1.00000e-02
 6.00000e-02  0.00000e+00  0.00000e+00
 6.00000e-02  1.00000e-02  0.00000e+00
 7.00000e-02  0.00000e+00  1.00000e-02
 7.00000e-02  1.00000e-02  1.00000e-02
 7.00000e-02  0.00000e+00  0.00000e+00
 7.00000e-02  1.00000e-02  0.00000e+00
 8.00000e-02  0.00000e+00  1.00000e-02
 8.00000e-02  1.00000e-02  1.00000e-02
 8.00000e-02  0.00000e+00  0.00000e+00
 8.00000e-02  1.00000e-02  0.00000e+00
 9.00000e-02  0.00000e+00  1.00000e-02
 9.00000e-02  1.00000e-02  1.00000e-02
 9.00000e-02  0.00000e+00  0.00000e+00
 9.00000e-02  1.00000e-02  0.00000e+00
 1.00000e-01  0.00000e+00  1.00000e-02
 1.00000e-01  1.00000e-02  1.00000e-02
 1.00000e-01  0.00000e+00  0.00000e+00
 1.00000e-01  1.00000e-02  0.00000e+00
 1.00000e-02  2.00000e-02  1.00000e-02
 0.00000e+00  2.00000e-02  1.00000e-02
 1.00000e-02  2.00000e-02  0.00000e+00
 0.00000e+00  2.00000e-02  0.00000e+00
 2.00000e-02  2.00000e-02  1.00000e-02
 2.00000e-02  2.00000e-02  0.00000e+00
 3.00000e-02  2.00000e-02  1.00000e-02
 3.00000e-02  2.00000e-02  0.00000e+00
 4.00000e-02  2.00000e-02  1.00000e-02
 4.00000e-02  2.00000e-02  0.00000e+00
 5.00000e-02  2.00000e-02  1.00000e-02
 5.00000e-02  2.00000e-02  0.00000e+00
 6.00000e-02  2.00000e-02  1.00000e-02
 6.00000e-02  2.00000e-02  0.00000e+00
 7.00000e-02  2.00000e-02  1.00000e-02
 7.00000e-02  2.00000e-02  0.00000e+00
 8.00000e-02  2.00000e-02  1.00000e-02
 8.00000e-02  2.00000e-02  0.00000e+00
 9.00000e-02  2.00000e-02  1.00000e-02
 9.00000e-02  2.00000e-02  0.00000e+00
 1.00000e-01  2.00000e-02  1.00000e-02
 1.00000e-01  2.00000e-02  0.00000e+00
 1.00000e-02  3.00000e-02  1.00000e-02
 0.00000e+00  3.00000e-02  1.00000e-02
 1.00000e-02  3.00000e-02  0.00000e+00
 0.00000e+00  3.00000e-02  0.00000e+00
 2.00000e-02  3.00000e-02  1.00000e-02
 2.00000e-02  3.00000e-02  0.00000e+00
 3.00000e-02  3.00000e-02  1.00000e-02
 3.00000e-02  3.00000e-02  0.00000e+00
 4.00000e-02  3.00000e-02  1.00000e-02
 4.00000e-02  3.00000e-02  0.00000e+00
 5.00000e-02  3.00000e-02  1.00000e-02
 5.00000e-02  3.00000e-02  0.00000e+00
 6.00000e-02  3.00000e-02  1.00000e-02
 6.00000e-02  3.00000e-02  0.00000e+00
 7.00000e-02  3.00000e-02  1.00000e-02
 7.00000e-02  3.00000e-02  0.00000e+00
 8.00000e-02  3.00000e-02  1.00000e-02
 8.00000e-02  3.00000e-02  0.00000e+00
 9.00000e-02  3.00000e-02  1.00000e-02
 9.00000e-02  3.00000e-02  0.00000e+00
 1.00000e-01  3.00000e-02  1.00000e-02
 1.00000e-01  3.00000e-02  0.00000e+00
 1.00000e-02  4.00000e-02  1.00000e-02
 0.00000e+00  4.00000e-02  1.00000e-02
 1.00000e-02  4.00000e-02  0.00000e+00
 0.00000e+00  4.00000e-02  0.00000e+00
 2.00000e-02  4.00000e-02  1.00000e-02
 2.00000e-02  4.00000e-02  0.00000e+00
 3.00000e-02  4.00000e-02  1.00000e-02
 3.00000e-02  4.00000e-02  0.00000e+00
 4.00000e-02  4.00000e-02  1.00000e-02
 4.00000e-02  4.00000e-02  0.00000e+00
 5.00000e-02  4.00000e-02  1.00000e-02
 5.00000e-02  4.00000e-02  0.00000e+00
 6.00000e-02  4.00000e-02  1.00000e-02
 6.00000e-02  4.00000e-02  0.00000e+00
 7.00000e-02  4.00000e-02  1.00000e-02
 7.00000e-02  4.00000e-02  0.00000e+00
 8.00000e-02  4.00000e-02  1.00000e-02
 8.00000e-02  4.00000e-02  0.00000e+00
 9.00000e-02  4.00000e-02  1.00000e-02
 9.00000e-02  4.00000e-02  0.00000e+00
 1.00000e-01  4.00000e-02  1.00000e-02
 1.00000e-01  4.00000e-02  0.00000e+00
 1.00000e-02  5.00000e-02  1.00000e-02
 0.00000e+00  5.00000e-02  1.00000e-02
 1.00000e-02  5.00000e-02  0.00000e+00
 0.00000e+00  5.00000e-02  0.00000e+00
 2.00000e-02  5.00000e-02  1.00000e-02
 2.00000e-02  5.00000e-02  0.00000e+00
 3.00000e-02  5.00000e-02  1.00000e-02
 3.00000e-02  5.00000e-02  0.00000e+00
 4.00000e-02  5.00000e-02  1.00000e-02
 4.00000e-02  5.00000e-02  0.00000e+00
 5.00000e-02  5.00000e-02  1.00000e-02
 5.00000e-02  5.00000e-02  0.00000e+00
 6.00000e-02  5.00000e-02  1.00000e-02
 6.00000e-02  5.00000e-02  0.00000e+00
 7.00000e-02  5.00000e-02  1.00000e-02
 7.00000e-02  5.00000e-02  0.00000e+00
 8.00000e-02  5.00000e-02  1.00000e-02
 8.00000e-02  5.00000e-02  0.00000e+00
 9.00000e-02  5.00000e-02  1.00000e-02
 9.00000e-02  5.00000e-02  0.00000e+00
 1.00000e-01  5.00000e-02  1.00000e-02
 1.00000e-01  5.00000e-02  0.00000e+00
 1.00000e-02  6.00000e-02  1.00000e-02
 0.00000e+00  6.00000e-02  1.00000e-02
 1.00000e-02  6.00000e-02  0.00000e+00
 0.00000e+00  6.00000e-02  0.00000e+00
 2.00000e-02  6.00000e-02  1.00000e-02
 2.00000e-02  6.00000e-02  0.00000e+00
 3.00000e-02  6.00000e-02  1.00000e-02
 3.00000e-02  6.00000e-02  0.00000e+00
 4.00000e-02  6.00000e-02  1.00000e-02
 4.00000e-02  6.00000e-02  0.00000e+00
 5.00000e-02  6.00000e-02  1.00000e-02
 5.00000e-02  6.00000e-02  0.00000e+00
 6.00000e-02  6.00000e-02  1.00000e-02
 6.00000e-02  6.00000e-02  0.00000e+00
 7.00000e-02  6.00000e-02  1.00000e-02
 7.00000e-02  6.00000e-02  0.00000e+00
 8.00000e-02  6.00000e-02  1.00000e-02
 8.00000e-02  6.00000e-02  0.00000e+00
 9.00000e-02  6.00000e-02  1.00000e-02
 9.00000e-02  6.00000e-02  0.00000e+00
 1.00000e-01  6.00000e-02  1.00000e-02
 1.00000e-01  6.00000e-02  0.00000e+00
 1.00000e-02  7.00000e-02  1.00000e-02
 0.00000e+00  7.00000e-02  1.00000e-02
 1.00000e-02  7.00000e-02  0.00000e+00
 0.00000e+00  7.00000e-02  0.00000e+00
 2.00000e-02  7.00000e-02  1.00000e-02
 2.00000e-02  7.00000e-02  0.00000e+00
 3.00000e-02  7.00000e-02  1.00000e-02
 3.00000e-02  7.00000e-02  0.00000e+00
 4.00000e-02  7.00000e-02  1.00000e-02
 4.00000e-02  7.00000e-02  0.00000e+00
 5.00000e-02  7.00000e-02  1.00000e-02
 5.00000e-02  7.00000e-02  0.00000e+00
 6.00000e-02  7.00000e-02  1.00000e-02
 6.00000e-02  7.00000e-02  0.00000e+00
 7.00000e-02  7.00000e-02  1.00000e-02
 7.00000e-02  7.00000e-02  0.00000e+00
 8.00000e-02  7.00000e-02  1.00000e-02
 8.00000e-02  7.00000e-02  0.00000e+00
 9.00000e-02  7.00000e-02  1.00000e-02
 9.00000e-02  7.00000e-02  0.00000e+00
 1.00000e-01  7.00000e-02  1.00000e-02
 1.00000e-01  7.00000e-02  0.00000e+00
 1.00000e-02  8.00000e-02  1.00000e-02
 0.00000e+00  8.00000e-02  1.00000e-02
 1.00000e-02  8.00000e-02  0.00000e+00
 0.00000e+00  8.00000e-02  0.00000e+00
 2.00000e-02  8.00000e-02  1.00000e-02
 2.00000e-02  8.00000e-02  0.00000e+00
 3.00000e-02  8.00000e-02  1.00000e-02
 3.00000e-02  8.00000e-02  0.00000e+00
 4.00000e-02  8.00000e-02  1.00000e-02
 4.00000e-02  8.00000e-02  0.00000e+00
 5.00000e-02  8.00000e-02  1.00000e-02
 5.00000e-02  8.00000e-02  0.00000e+00
 6.00000e-02  8.00000e-02  1.00000e-02
 6.00000e-02  8.00000e-02  0.00000e+00
 7.00000e-02  8.00000e-02  1.00000e-02
 7.00000e-02  8.00000e-02  0.00000e+00
 8.00000e-02  8.00000e-02  1.00000e-02
 8.00000e-02  8.00000e-02  0.00000e+00
 9.00000e-02  8.00000e-02  1.00000e-02
 9.00000e-02  8.00000e-02  0.00000e+00
 1.00000e-01  8.00000e-02  1.00000e-02
 1.00000e-01  8.00000e-02  0.00000e+00
 1.00000e-02  9.00000e-02  1.00000e-02
 0.00000e+00  9.00000e-02  1.00000e-02
 1.00000e-02  9.00000e-02  0.00000e+00
 0.00000e+00  9.00000e-02  0.00000e+00
 2.00000e-02  9.00000e-02  1.00000e-02
 2.00000e-02  9.00000e-02  0.00000e+00
 3.00000e-02  9.00000e-02  1.00000e-02
 3.00000e-02  9.00000e-02  0.00000e+00
 4.00000e-02  9.00000e-02  1.00000e-02
 4.00000e-02  9.00000e-02  0.00000e+00
 5.00000e-02  9.00000e-02  1.00000e-02
 5.00000e-02  9.00000e-02  0.00000e+00
 6.00000e-02  9.00000e-02  1.00000e-02
 6.00000e-02  9.00000e-02  0.00000e+00
 7.00000e-02  9.00000e-02  1.00000e-02
 7.00000e-02  9.00000e-02  0.00000e+00
 8.00000e-02  9.00000e-02  1.00000e-02
 8.00000e-02  9.00000e-02  0.00000e+00
 9.00000e-02  9.00000e-02  1.00000e-02
 9.00000e-02  9.00000e-02  0.00000e+00
 1.00000e-01  9.00000e-02  1.00000e-02
 1.00000e-01  9.00000e-02  0.00000e+00
 1.00000e-02  1.00000e-01  1.00000e-02
 0.00000e+00  1.00000e-01  1.00000e-02
 1.00000e-02  1.00000e-01  0.00000e+00
 0.00000e+00  1.00000e-01  0.00000e+00
 2.00000e-02  1.00000e-01  1.00000e-02
 2.00000e-02  1.00000e-01  0.00000e+00
 3.00000e-02  1.00000e-01  1.00000e-02
 3.00000e-02  1.00000e-01  0.00000e+00
 4.00000e-02  1.00000e-01  1.00000e-02
 4.00000e-02  1.00000e-01  0.00000e+00
 5.00000e-02  1.00000e-01  1.00000e-02
 5.00000e-02  1.00000e-01  0.00000e+00
 6.00000e-02  1.00000e-01  1.00000e-02
 6.00000e-02  1.00000e-01  0.00000e+00
 7.00000e-02  1.00000e-01  1.00000e-02
 7.00000e-02  1.00000e-01  0.00000e+00
 8.00000e-02  1.00000e-01  1.00000e-02
 8.00000e-02  1.00000e-01  0.00000e+00
 9.00000e-02  1.00000e-01  1.00000e-02
 9.00000e-02  1.00000e-01  0.00000e+00
 1.00000e-01  1.00000e-01  1.00000e-02
 1.00000e-01  1.00000e-01  0.00000e+00
 0.00000e+00  1.00000e-02  2.00000e-02
 1.00000e-02  1.00000e-02  2.00000e-02
 0.00000e+00  0.00000e+00  2.00000e-02
 1.00000e-02  0.00000e+00  2.00000e-02
 2.00000e-02  1.00000e-02  2.00000e-02
 2.00000e-02  0.00000e+00  2.00000e-02
 3.00000e-02  1.00000e-02  2.00000e-02
 3.00000e-02  0.00000e+00  2.00000e-02
 4.00000e-02  1.00000e-02  2.00000e-02
 4.00000e-02  0.00000e+00  2.00000e-02
 5.00000e-02  1.00000e-02  2.00000e-02
 5.00000e-02  0.00000e+00  2.00000e-02
[...]
CELL_DATA 1000
SCALARS Pressure double
LOOKUP_TABLE default
 0.00000e+00
 0.00000e+00
 0.00000e+00
 0.00000e+00
 0.00000e+00
 0.00000e+00
 0.00000e+00
 0.00000e+00
 0.00000e+00
 0.00000e+00
 0.00000e+00
 0.00000e+00
 0.00000e+00
 0.00000e+00
 0.00000e+00
 0.00000e+00
 0.00000e+00
 0.00000e+00
 0.00000e+00
 0.00000e+00
 0.00000e+00
 0.00000e+00
 0.00000e+00
 0.00000e+00
 0.00000e+00
 0.00000e+00
 0.00000e+00
 0.00000e+00
 0.00000e+00
 0.00000e+00
 0.00000e+00
 0.00000e+00
 0.00000e+00
 0.00000e+00
 0.00000e+00
 0.00000e+00
 0.00000e+00
 0.00000e+00
 0.00000e+00
 0.00000e+00
 0.00000e+00
 0.00000e+00
 0.00000e+00
 0.00000e+00
 0.00000e+00
 0.00000e+00
 0.00000e+00
 0.00000e+00
 0.00000e+00
 0.00000e+00
 0.00000e+00
 0.00000e+00
 0.00000e+00
 0.00000e+00
 0.00000e+00
 0.00000e+00
 0.00000e+00
 0.00000e+00
 0.00000e+00
 0.00000e+00
 0.00000e+00
 0.00000e+00
 0.00000e+00
 0.00000e+00
 0.00000e+00
 0.00000e+00
 0.00000e+00
 0.00000e+00
 0.00000e+00
 0.00000e+00
 0.00000e+00
 0.00000e+00
 0.00000e+00
 0.00000e+00
 0.00000e+00
 0.00000e+00
 0.00000e+00
 0.00000e+00
 0.00000e+00
 0.00000e+00
 0.00000e+00
 0.00000e+00
 0.00000e+00
 0.00000e+00
 0.00000e+00
 0.00000e+00
 0.00000e+00
 0.00000e+00
 0.00000e+00
 0.00000e+00
 0.00000e+00
 0.00000e+00
 0.00000e+00
 0.00000e+00
 0.00000e+00
 0.00000e+00
 0.00000e+00
 0.00000e+00
 0.00000e+00
 0.00000e+00
 0.00000e+00
 0.00000e+00
 0.00000e+00
 0.00000e+00
 0.00000e+00
 0.00000e+00
 0.00000e+00
 0.00000e+00
 0.00000e+00
 0.00000e+00
 0.00000e+00
 0.00000e+00
 0.00000e+00
 0.00000e+00
 0.00000e+00
 0.00000e+00
 0.00000e+00
 0.00000e+00
 0.00000e+00
 0.00000e+00
 0.00000e+00
 0.00000e+00
 0.00000e+00
 0.00000e+00
 0.00000e+00
 0.00000e+00
 0.00000e+00
 0.00000e+00
 0.00000e+00
 0.00000e+00
 0.00000e+00
 0.00000e+00
 0.00000e+00
 0.00000e+00
 0.00000e+00
 0.00000e+00
 0.00000e+00
 0.00000e+00
 0.00000e+00
 0.00000e+00
 0.00000e+00
 0.00000e+00
 0.00000e+00
 0.00000e+00
 0.00000e+00
 0.00000e+00
 0.00000e+00
 0.00000e+00
 0.00000e+00
 0.00000e+00
 0.00000e+00
 0.00000e+00
 0.00000e+00
 0.00000e+00
 0.00000e+00
 0.00000e+00
 0.00000e+00
 0.00000e+00
 0.00000e+00
 0.00000e+00
 0.00000e+00
 0.00000e+00
 0.00000e+00
 0.00000e+00
 0.00000e+00
 0.00000e+00
 0.00000e+00
 0.00000e+00
 0.00000e+00
 0.00000e+00
 0.00000e+00
 0.00000e+00
 0.00000e+00
 0.00000e+00
 0.00000e+00
 0.00000e+00
 0.00000e+00
 0.00000e+00
 0.00000e+00
 0.00000e+00
 0.00000e+00
 0.00000e+00
 0.00000e+00
 0.00000e+00
 0.00000e+00
 0.00000e+00
 0.00000e+00
 0.00000e+00
 0.00000e+00
 0.00000e+00
 0.00000e+00
 0.00000e+00
 0.00000e+00
 0.00000e+00
 0.00000e+00
 0.00000e+00
 0.00000e+00
 0.00000e+00
 0.00000e+00
 0.00000e+00
 0.00000e+00
 0.00000e+00
 0.00000e+00
 0.00000e+00
 0.00000e+00
 0.00000e+00
 0.00000e+00
 0.00000e+00
 0.00000e+00
 0.00000e+00
 0.00000e+00
 0.00000e+00
 0.00000e+00
 0.00000e+00
 0.00000e+00
 0.00000e+00
 0.00000e+00
 0.00000e+00
 0.00000e+00
 0.00000e+00
 0.00000e+00
 0.00000e+00
 0.00000e+00
 0.00000e+00
 0.00000e+00
 0.00000e+00
 0.00000e+00
 0.00000e+00
 0.00000e+00
 0.00000e+00
 0.00000e+00
 0.00000e+00
 0.00000e+00
 0.00000e+00
 0.00000e+00
 0.00000e+00
 0.00000e+00
 0.00000e+00
 0.00000e+00
 0.00000e+00
 0.00000e+00
 0.00000e+00
 0.00000e+00
 0.00000e+00
 0.00000e+00
 0.00000e+00
 0.00000e+00
 0.00000e+00
 0.00000e+00
 0.00000e+00
 0.00000e+00
 0.00000e+00
 0.00000e+00
 0.00000e+00
 0.00000e+00
 0.00000e+00
 0.00000e+00
 0.00000e+00
 0.00000e+00
 0.00000e+00
 0.00000e+00
 0.00000e+00
 0.00000e+00
 0.00000e+00
 0.00000e+00
 0.00000e+00
 0.00000e+00
 0.00000e+00
 0.00000e+00
 0.00000e+00
 0.00000e+00
 0.00000e+00
 0.00000e+00
 0.00000e+00
 0.00000e+00
 0.00000e+00
 0.00000e+00
 0.00000e+00
 0.00000e+00
 0.00000e+00
 0.00000e+00
 0.00000e+00
 0.00000e+00
 0.00000e+00
 0.00000e+00
 0.00000e+00
 0.00000e+00
 0.00000e+00
 0.00000e+00
 0.00000e+00
 0.00000e+00
 0.00000e+00
 0.00000e+00
 0.00000e+00
 0.00000e+00
 0.00000e+00
 0.00000e+00
 0.00000e+00
 0.00000e+00
 0.00000e+00
 0.00000e+00
 0.00000e+00
 0.00000e+00
 0.00000e+00
 0.00000e+00
 0.00000e+00
 0.00000e+00
 0.00000e+00
 0.00000e+00
 0.00000e+00
 0.00000e+00
 0.00000e+00
 0.00000e+00
 0.00000e+00
 0.00000e+00
 0.00000e+00
 0.00000e+00
 0.00000e+00
 0.00000e+00
 0.00000e+00
 0.00000e+00
 0.00000e+00
 0.00000e+00
 0.00000e+00
 0.00000e+00
 0.00000e+00
 0.00000e+00
 0.00000e+00
 0.00000e+00
 0.00000e+00
 0.00000e+00
 0.00000e+00
 0.00000e+00
 0.00000e+00
 0.00000e+00
 0.00000e+00
 0.00000e+00
 0.00000e+00
 0.00000e+00
 0.00000e+00
 0.00000e+00
 0.00000e+00
 0.00000e+00
 0.00000e+00
 0.00000e+00
 0.00000e+00
 0.00000e+00
 0.00000e+00
 0.00000e+00
 0.00000e+00
 0.00000e+00
 0.00000e+00
 0.00000e+00
 0.00000e+00
 0.00000e+00
 0.00000e+00
 0.00000e+00
 0.00000e+00
 0.00000e+00
 0.00000e+00
 0.00000e+00
 0.00000e+00
 0.00000e+00
 0.00000e+00
 0.00000e+00
 0.00000e+00
 0.00000e+00
 0.00000e+00
 0.00000e+00
 0.00000e+00
 0.00000e+00
 0.00000e+00
 0.00000e+00
 0.00000e+00
 0.00000e+00
 0.00000e+00
 0.00000e+00
 0.00000e+00
 0.00000e+00
 0.00000e+00
 0.00000e+00
 0.00000e+00
 0.00000e+00
 0.00000e+00
 0.00000e+00
 0.00000e+00
 0.00000e+00
 0.00000e+00
 0.00000e+00
 0.00000e+00
 0.00000e+00
 0.00000e+00
 0.00000e+00
 0.00000e+00
 0.00000e+00
 0.00000e+00
 0.00000e+00
 0.00000e+00
 0.00000e+00
 0.00000e+00
 0.00000e+00
 0.00000e+00
 0.00000e+00
 0.00000e+00
 0.00000e+00
 0.00000e+00
 0.00000e+00
 0.00000e+00
 0.00000e+00
 0.00000e+00
 0.00000e+00
 0.00000e+00
 0.00000e+00
 0.00000e+00
 0.00000e+00
 0.00000e+00
 0.00000e+00
 0.00000e+00
 0.00000e+00
 0.00000e+00
 0.00000e+00
 0.00000e+00
 0.00000e+00
 0.00000e+00
 0.00000e+00
 0.00000e+00
 0.00000e+00
 0.00000e+00
 0.00000e+00
 0.00000e+00
 0.00000e+00
 0.00000e+00
 0.00000e+00
 0.00000e+00
 0.00000e+00
 0.00000e+00
 0.00000e+00
 0.00000e+00
 0.00000e+00
 0.00000e+00
 0.00000e+00
 0.00000e+00
 0.00000e+00
 0.00000e+00
 0.00000e+00
 0.00000e+00
 0.00000e+00
 0.00000e+00
 0.00000e+00
 0.00000e+00
 0.00000e+00
 0.00000e+00
 0.00000e+00
 0.00000e+00
 0.00000e+00
 0.00000e+00
 0.00000e+00
 0.00000e+00
 0.00000e+00
 0.00000e+00
 0.00000e+00
 0.00000e+00
 0.00000e+00
 0.00000e+00
 0.00000e+00
 0.00000e+00
 0.00000e+00
 0.00000e+00
 0.00000e+00
 0.00000e+00
 0.00000e+00
 0.00000e+00
 0.00000e+00
 0.00000e+00
 0.00000e+00
 0.00000e+00
 0.00000e+00
 0.00000e+00
 0.00000e+00
 0.00000e+00
 0.00000e+00
 0.00000e+00
 0.00000e+00
 0.00000e+00
 0.00000e+00
 0.00000e+00
 0.00000e+00
 0.00000e+00
 0.00000e+00
 0.00000e+00
 0.00000e+00
 0.00000e+00
 0.00000e+00
 0.00000e+00
 0.00000e+00
 0.00000e+00
 0.00000e+00
 0.00000e+00
 0.00000e+00
 0.00000e+00
 0.00000e+00
 0.00000e+00
 0.00000e+00
 0.00000e+00
 0.00000e+00
 0.00000e+00
 0.00000e+00
 0.00000e+00
 0.00000e+00
 0.00000e+00
 0.00000e+00
 0.00000e+00
 0.00000e+00
 0.00000e+00
 0.00000e+00
 0.00000e+00
 0.00000e+00
 0.00000e+00
 0.00000e+00
 0.00000e+00
 0.00000e+00
 0.00000e+00
 0.00000e+00
 0.00000e+00
 0.00000e+00
 0.00000e+00
 0.00000e+00
 0.00000e+00
 0.00000e+00
 0.00000e+00
 0.00000e+00
 0.00000e+00
 0.00000e+00
 0.00000e+00
 0.00000e+00
 0.00000e+00
 0.00000e+00
 0.00000e+00
 0.00000e+00
 0.00000e+00
 0.00000e+00
 0.00000e+00
 0.00000e+00
 0.00000e+00
 0.00000e+00
 0.00000e+00
 0.00000e+00
 0.00000e+00
 0.00000e+00
 0.00000e+00
 0.00000e+00
 0.00000e+00
 0.00000e+00
 0.00000e+00
 0.00000e+00
 0.00000e+00
 0.00000e+00
 0.00000e+00
 0.00000e+00
 0.00000e+00
 0.00000e+00
 0.00000e+00
 0.00000e+00
 0.00000e+00
 0.00000e+00
 0.00000e+00
 0.00000e+00
 0.00000e+00
 0.00000e+00
 0.00000e+00
 0.00000e+00
 0.00000e+00
 0.00000e+00
 0.00000e+00
 0.00000e+00
 0.00000e+00
 0.00000e+00
 0.00000e+00
 0.00000e+00
 0.00000e+00
 0.00000e+00
 0.00000e+00
 0.00000e+00
 0.00000e+00
 0.00000e+00
 0.00000e+00
 0.00000e+00
 0.00000e+00
 0.00000e+00
 0.00000e+00
 0.00000e+00
 0.00000e+00
 0.00000e+00
 0.00000e+00
 0.00000e+00
 0.00000e+00
 0.00000e+00
 0.00000e+00
 0.00000e+00
 0.00000e+00
 0.00000e+00
 0.00000e+00
 0.00000e+00
 0.00000e+00
 0.00000e+00
 0.00000e+00
 0.00000e+00
 0.00000e+00
 0.00000e+00
 0.00000e+00
 0.00000e+00
 0.00000e+00
 0.00000e+00
 0.00000e+00
 0.00000e+00
 0.00000e+00
 0.00000e+00
 0.00000e+00
 0.00000e+00
 0.00000e+00
 0.00000e+00
 0.00000e+00
 0.00000e+00
 0.00000e+00
 0.00000e+00
 0.00000e+00
 0.00000e+00
 0.00000e+00
 0.00000e+00
 0.00000e+00
 0.00000e+00
 0.00000e+00
 0.00000e+00
 0.00000e+00
 0.00000e+00
 0.00000e+00
 0.00000e+00
 0.00000e+00
 0.00000e+00
 0.00000e+00
 0.00000e+00
 0.00000e+00
 0.00000e+00
 0.00000e+00
 0.00000e+00
 0.00000e+00
 0.00000e+00
 0.00000e+00
 0.00000e+00
 0.00000e+00
 0.00000e+00
 0.00000e+00
 0.00000e+00
 0.00000e+00
 0.00000e+00
 0.00000e+00
 0.00000e+00
 0.00000e+00
 0.00000e+00
 0.00000e+00
 0.00000e+00
 0.00000e+00
 0.00000e+00
 0.00000e+00
 0.00000e+00
 0.00000e+00
 0.00000e+00
 0.00000e+00
 0.00000e+00
 0.00000e+00
 0.00000e+00
 0.00000e+00
 0.00000e+00
 0.00000e+00
 0.00000e+00
 0.00000e+00
 0.00000e+00
 0.00000e+00
 0.00000e+00
 0.00000e+00
 0.00000e+00
 0.00000e+00
 0.00000e+00
 0.00000e+00
 0.00000e+00
 0.00000e+00
 0.00000e+00
 0.00000e+00
 0.00000e+00
 0.00000e+00
 0.00000e+00
 0.00000e+00
 0.00000e+00
 0.00000e+00
 0.00000e+00
 0.00000e+00
 0.00000e+00
 0.00000e+00
 0.00000e+00
 0.00000e+00
 0.00000e+00
 0.00000e+00
 0.00000e+00
 0.00000e+00
 0.00000e+00
 0.00000e+00
 0.00000e+00
 0.00000e+00
 0.00000e+00
 0.00000e+00
 0.00000e+00
 0.00000e+00
 0.00000e+00
 0.00000e+00
 0.00000e+00
 0.00000e+00
 0.00000e+00
 0.00000e+00
 0.00000e+00
 0.00000e+00
 0.00000e+00
 0.00000e+00
 0.00000e+00
 0.00000e+00
 0.00000e+00
 0.00000e+00
 0.00000e+00
 0.00000e+00
 0.00000e+00
 0.00000e+00
 0.00000e+00
 0.00000e+00
 0.00000e+00
 0.00000e+00
 0.00000e+00
 0.00000e+00
 0.00000e+00
 0.00000e+00
 0.00000e+00
 0.00000e+00
 0.00000e+00
 0.00000e+00
 0.00000e+00
 0.00000e+00
 0.00000e+00
 0.00000e+00
 0.00000e+00
 0.00000e+00
 0.00000e+00
 0.00000e+00
 0.00000e+00
 0.00000e+00
 0.00000e+00
 0.00000e+00
 0.00000e+00
 0.00000e+00
 0.00000e+00
 0.00000e+00
 0.00000e+00
 0.00000e+00
 0.00000e+00
 0.00000e+00
 0.00000e+00
 0.00000e+00
 0.00000e+00
 0.00000e+00
 0.00000e+00
 0.00000e+00
 0.00000e+00
 0.00000e+00
 0.00000e+00
 0.00000e+00
 0.00000e+00
 0.00000e+00
 0.00000e+00
 0.00000e+00
 0.00000e+00
 0.00000e+00
 0.00000e+00
 0.00000e+00
 0.00000e+00
 0.00000e+00
 0.00000e+00
 0.00000e+00
 0.00000e+00
 0.00000e+00
 0.00000e+00
 0.00000e+00
 0.00000e+00
 0.00000e+00
 0.00000e+00
 0.00000e+00
 0.00000e+00
 0.00000e+00
 0.00000e+00
 0.00000e+00
 0.00000e+00
 0.00000e+00
 0.00000e+00
 0.00000e+00
 0.00000e+00
 0.00000e+00
 0.00000e+00
 0.00000e+00
 0.00000e+00
 0.00000e+00
 0.00000e+00
 0.00000e+00
 0.00000e+00
 0.00000e+00
 0.00000e+00
 0.00000e+00
 0.00000e+00
 0.00000e+00
 0.00000e+00
 0.00000e+00
 0.00000e+00
 0.00000e+00
 0.00000e+00
 0.00000e+00
 0.00000e+00
 0.00000e+00
 0.00000e+00
 0.00000e+00
 0.00000e+00
 0.00000e+00
 0.00000e+00
 0.00000e+00
 0.00000e+00
 0.00000e+00
 0.00000e+00
 0.00000e+00
 0.00000e+00
 0.00000e+00
 0.00000e+00
 0.00000e+00
 0.00000e+00
 0.00000e+00
 0.00000e+00
 0.00000e+00
 0.00000e+00
 0.00000e+00
 0.00000e+00
 0.00000e+00
 0.00000e+00
 0.00000e+00
 0.00000e+00
 0.00000e+00
 0.00000e+00
 0.00000e+00
 0.00000e+00
 0.00000e+00
 0.00000e+00
 0.00000e+00
 0.00000e+00
 0.00000e+00
 0.00000e+00
 0.00000e+00
 0.00000e+00
 0.00000e+00
 0.00000e+00
 0.00000e+00
 0.00000e+00
 0.00000e+00
 0.00000e+00
 0.00000e+00
 0.00000e+00
 0.00000e+00
 0.00000e+00
 0.00000e+00
 0.00000e+00
 0.00000e+00
 0.00000e+00
 0.00000e+00
 0.00000e+00
 0.00000e+00
 0.00000e+00
 0.00000e+00
 0.00000e+00
 0.00000e+00
 0.00000e+00
 0.00000e+00
 0.00000e+00
 0.00000e+00
 0.00000e+00
 0.00000e+00
 0.00000e+00
 0.00000e+00
 0.00000e+00
 0.00000e+00
 0.00000e+00
 0.00000e+00
 0.00000e+00
 0.00000e+00
 0.00000e+00
 0.00000e+00
 0.00000e+00
 0.00000e+00
 0.00000e+00
 0.00000e+00
 0.00000e+00
 0.00000e+00
 0.00000e+00
 0.00000e+00
 0.00000e+00
 0.00000e+00
 0.00000e+00
 0.00000e+00
 0.00000e+00
 0.00000e+00
 0.00000e+00
 0.00000e+00
 0.00000e+00
 0.00000e+00
 0.00000e+00
 0.00000e+00
 0.00000e+00
 0.00000e+00
 0.00000e+00
 0.00000e+00
 0.00000e+00
 0.00000e+00
 0.00000e+00
 0.00000e+00
 0.00000e+00
 0.00000e+00
 0.00000e+00
 0.00000e+00
 0.00000e+00
 0.00000e+00
 0.00000e+00
 0.00000e+00
 0.00000e+00
 0.00000e+00
 0.00000e+00
 0.00000e+00
 0.00000e+00
 0.00000e+00
 0.00000e+00
 0.00000e+00
 0.00000e+00
 0.00000e+00
 0.00000e+00
 0.00000e+00
 0.00000e+00
 0.00000e+00
 0.00000e+00
 0.00000e+00
 0.00000e+00
 0.00000e+00
 0.00000e+00
 0.00000e+00
 0.00000e+00
 0.00000e+00
 0.00000e+00
 0.00000e+00
 0.00000e+00
 0.00000e+00
 0.00000e+00
 0.00000e+00
 0.00000e+00
 0.00000e+00
 0.00000e+00
 0.00000e+00
 0.00000e+00
 0.00000e+00
 0.00000e+00
 0.00000e+00
 0.00000e+00
 0.00000e+00
 0.00000e+00
 0.00000e+00
 0.00000e+00
 0.00000e+00
 0.00000e+00
 0.00000e+00
 0.00000e+00
 0.00000e+00
 0.00000e+00
 0.00000e+00
 0.00000e+00
 0.00000e+00
 0.00000e+00
 0.00000e+00
 0.00000e+00
 0.00000e+00
 0.00000e+00
 0.00000e+00
 0.00000e+00
 0.00000e+00
 0.00000e+00
 0.00000e+00
 0.00000e+00
 0.00000e+00
 0.00000e+00
 0.00000e+00
 0.00000e+00
 0.00000e+00
 0.00000e+00
 0.00000e+00
VECTORS Velocity double
 2.02259e-04  0.00000e+00  0.00000e+00
 2.02756e-04  0.00000e+00  0.00000e+00
 2.02756e-04  0.00000e+00  0.00000e+00
 2.02756e-04  0.00000e+00  0.00000e+00
 2.02756e-04  0.00000e+00  0.00000e+00
 2.02756e-04  0.00000e+00  0.00000e+00
 2.02756e-04  0.00000e+00  0.00000e+00
 2.02756e-04  0.00000e+00  0.00000e+00
 2.02756e-04  0.00000e+00  0.00000e+00
 2.02259e-04  0.00000e+00  0.00000e+00
 2.04737e-07  0.00000e+00  0.00000e+00
 2.06055e-07  0.00000e+00  0.00000e+00
 2.05849e-07  0.00000e+00  0.00000e+00
 2.05849e-07  0.00000e+00  0.00000e+00
 2.05849e-07  0.00000e+00  0.00000e+00
 2.05849e-07  0.00000e+00  0.00000e+00
 2.05746e-07  0.00000e+00  0.00000e+00
 2.05953e-07  0.00000e+00  0.00000e+00
 2.05848e-07  0.00000e+00  0.00000e+00
 2.04840e-07  0.00000e+00  0.00000e+00
 3.10933e-10  0.00000e+00  0.00000e+00
 2.09461e-10  0.00000e+00  0.00000e+00
 2.09412e-10  0.00000e+00  0.00000e+00
 2.08939e-10  0.00000e+00  0.00000e+00
 2.09202e-10  0.00000e+00  0.00000e+00
 2.09307e-10  0.00000e+00  0.00000e+00
 3.13077e-10  0.00000e+00  0.00000e+00
 2.09307e-10  0.00000e+00  0.00000e+00
 2.09094e-10  0.00000e+00  0.00000e+00
 2.07612e-10  0.00000e+00  0.00000e+00
 3.67958e-13  0.00000e+00  0.00000e+00
 4.77608e-13  0.00000e+00  0.00000e+00
 2.67166e-13  0.00000e+00  0.00000e+00
 3.18418e-13  0.00000e+00  0.00000e+00
 2.12729e-13  0.00000e+00  0.00000e+00
 2.13413e-13  0.00000e+00  0.00000e+00
 3.70877e-13  0.00000e+00  0.00000e+00
 2.65747e-13  0.00000e+00  0.00000e+00
 2.12866e-13  0.00000e+00  0.00000e+00
 2.10425e-13  0.00000e+00  0.00000e+00
 5.33553e-14  0.00000e+00  0.00000e+00
 1.12477e-15  0.00000e+00  0.00000e+00
 4.62853e-16  0.00000e+00  0.00000e+00
 4.32467e-16  0.00000e+00  0.00000e+00
 4.93923e-16  0.00000e+00  0.00000e+00
 3.79972e-16  0.00000e+00  0.00000e+00
 5.34168e-14  0.00000e+00  0.00000e+00
 5.13127e-16  0.00000e+00  0.00000e+00
 2.44855e-16  0.00000e+00  0.00000e+00
 2.14011e-16  0.00000e+00  0.00000e+00
 1.30309e-16  0.00000e+00  0.00000e+00
 3.78983e-17  0.00000e+00  0.00000e+00
 1.10346e-18  0.00000e+00  0.00000e+00
 7.85842e-19  0.00000e+00  0.00000e+00
 1.00953e-18  0.00000e+00  0.00000e+00
 2.80358e-17  0.00000e+00  0.00000e+00
 8.19538e-17  0.00000e+00  0.00000e+00
 1.05050e-18  0.00000e+00  0.00000e+00
 5.45324e-19  0.00000e+00  0.00000e+00
 3.45723e-19  0.00000e+00  0.00000e+00
 2.37069e-19  0.00000e+00  0.00000e+00
 1.97846e-19  0.00000e+00  0.00000e+00
 7.81131e-20  0.00000e+00  0.00000e+00
 1.76793e-21  0.00000e+00  0.00000e+00
 4.13278e-20  0.00000e+00  0.00000e+00
 1.89037e-19  0.00000e+00  0.00000e+00
 2.05578e-19  0.00000e+00  0.00000e+00
 4.37136e-20  0.00000e+00  0.00000e+00
 3.35757e-20  0.00000e+00  0.00000e+00
 8.68289e-22  0.00000e+00  0.00000e+00
 9.56003e-21  0.00000e+00  0.00000e+00
 9.56191e-21  0.00000e+00  0.00000e+00
 3.40256e-22  0.00000e+00  0.00000e+00
 1.05527e-22  0.00000e+00  0.00000e+00
 3.96770e-20  0.00000e+00  0.00000e+00
 5.21156e-21  0.00000e+00  0.00000e+00
 9.65489e-21  0.00000e+00  0.00000e+00
 4.96527e-21  0.00000e+00  0.00000e+00
 2.76110e-22  0.00000e+00  0.00000e+00
 7.63272e-23  0.00000e+00  0.00000e+00
 2.38793e-23  0.00000e+00  0.00000e+00
 3.78580e-23  0.00000e+00  0.00000e+00
 1.46350e-23  0.00000e+00  0.00000e+00
 3.43720e-23  0.00000e+00  0.00000e+00
 7.44736e-23  0.00000e+00  0.00000e+00
 5.62853e-23  0.00000e+00  0.00000e+00
 1.07191e-22  0.00000e+00  0.00000e+00
 9.61416e-23  0.00000e+00  0.00000e+00
 6.35684e-23  0.00000e+00  0.00000e+00
 1.89012e-23  0.00000e+00  0.00000e+00
 5.73924e-26  0.00000e+00  0.00000e+00
 8.12118e-26  0.00000e+00  0.00000e+00
 9.97253e-26  0.00000e+00  0.00000e+00
 1.18052e-25  0.00000e+00  0.00000e+00
 1.88539e-25  0.00000e+00  0.00000e+00
 1.66046e-23  0.00000e+00  0.00000e+00
 1.87978e-23  0.00000e+00  0.00000e+00
 9.59006e-24  0.00000e+00  0.00000e+00
 4.86362e-24  0.00000e+00  0.00000e+00
 4.67048e-24  0.00000e+00  0.00000e+00
 2.02756e-04  0.00000e+00  0.00000e+00
 2.03255e-04  0.00000e+00  0.00000e+00
 2.03256e-04  0.00000e+00  0.00000e+00
 2.03255e-04  0.00000e+00  0.00000e+00
 2.03256e-04  0.00000e+00  0.00000e+00
 2.03256e-04  0.00000e+00  0.00000e+00
 2.03255e-04  0.00000e+00  0.00000e+00
 2.03256e-04  0.00000e+00  0.00000e+00
 2.03255e-04  0.00000e+00  0.00000e+00
 2.02756e-04  0.00000e+00  0.00000e+00
 2.05951e-07  0.00000e+00  0.00000e+00
 2.06862e-07  0.00000e+00  0.00000e+00
 2.06761e-07  0.00000e+00  0.00000e+00
 2.06968e-07  0.00000e+00  0.00000e+00
 2.06864e-07  0.00000e+00  0.00000e+00
 2.06760e-07  0.00000e+00  0.00000e+00
 2.07073e-07  0.00000e+00  0.00000e+00
 2.06969e-07  0.00000e+00  0.00000e+00
 2.06862e-07  0.00000e+00  0.00000e+00
 2.05745e-07  0.00000e+00  0.00000e+00
 2.09251e-10  0.00000e+00  0.00000e+00
 2.11434e-10  0.00000e+00  0.00000e+00
 3.14981e-10  0.00000e+00  0.00000e+00
 2.11226e-10  0.00000e+00  0.00000e+00
 2.10750e-10  0.00000e+00  0.00000e+00
 3.15138e-10  0.00000e+00  0.00000e+00
 3.15665e-10  0.00000e+00  0.00000e+00
 2.11068e-10  0.00000e+00  0.00000e+00
 2.10903e-10  0.00000e+00  0.00000e+00
 3.12713e-10  0.00000e+00  0.00000e+00
 4.25064e-13  0.00000e+00  0.00000e+00
 2.70416e-13  0.00000e+00  0.00000e+00
 4.80525e-13  0.00000e+00  0.00000e+00
 2.16239e-13  0.00000e+00  0.00000e+00
 2.15473e-13  0.00000e+00  0.00000e+00
 3.74090e-13  0.00000e+00  0.00000e+00
 5.86804e-13  0.00000e+00  0.00000e+00
 2.16079e-13  0.00000e+00  0.00000e+00
 2.15190e-13  0.00000e+00  0.00000e+00
 3.69889e-13  0.00000e+00  0.00000e+00
 8.09028e-16  0.00000e+00  0.00000e+00
 7.51158e-16  0.00000e+00  0.00000e+00
 7.69654e-16  0.00000e+00  0.00000e+00
 3.57439e-16  0.00000e+00  0.00000e+00
 3.29910e-16  0.00000e+00  0.00000e+00
 5.35752e-14  0.00000e+00  0.00000e+00
 9.75664e-16  0.00000e+00  0.00000e+00
 2.76818e-16  0.00000e+00  0.00000e+00
 2.21011e-16  0.00000e+00  0.00000e+00
 4.28793e-16  0.00000e+00  0.00000e+00
 7.36046e-17  0.00000e+00  0.00000e+00
 1.97581e-17  0.00000e+00  0.00000e+00
 1.95958e-17  0.00000e+00  0.00000e+00
 7.01638e-19  0.00000e+00  0.00000e+00
 6.82299e-19  0.00000e+00  0.00000e+00
 8.19334e-17  0.00000e+00  0.00000e+00
 2.87866e-17  0.00000e+00  0.00000e+00
 7.20496e-19  0.00000e+00  0.00000e+00
 5.11988e-19  0.00000e+00  0.00000e+00
 5.39147e-17  0.00000e+00  0.00000e+00
 2.42525e-19  0.00000e+00  0.00000e+00
 1.82644e-17  0.00000e+00  0.00000e+00
 9.24774e-20  0.00000e+00  0.00000e+00
 3.39133e-20  0.00000e+00  0.00000e+00
 8.07614e-20  0.00000e+00  0.00000e+00
 2.00185e-19  0.00000e+00  0.00000e+00
 1.25164e-19  0.00000e+00  0.00000e+00
 3.45325e-20  0.00000e+00  0.00000e+00
 1.67546e-21  0.00000e+00  0.00000e+00
 8.20916e-20  0.00000e+00  0.00000e+00
 3.01634e-20  0.00000e+00  0.00000e+00
 3.95535e-20  0.00000e+00  0.00000e+00
 3.24849e-20  0.00000e+00  0.00000e+00
 1.62288e-22  0.00000e+00  0.00000e+00
 4.23431e-22  0.00000e+00  0.00000e+00
 5.18612e-21  0.00000e+00  0.00000e+00
 5.54313e-22  0.00000e+00  0.00000e+00